
Host: Alexandres-MacBook-Pro.local

Timers On : Thu Sep 21 15:34:38 2017
Timers Off: Thu Sep 21 15:34:38 2017

Wall Time:        0.00 seconds


***********************************************************

Host: Alexandres-MacBook-Pro.local

Timers On : Thu Sep 21 15:36:42 2017
Timers Off: Thu Sep 21 15:36:43 2017

Wall Time:        1.00 seconds


***********************************************************

Host: Alexandres-MacBook-Pro.local

Timers On : Thu Sep 21 17:27:26 2017
Timers Off: Thu Sep 21 17:27:27 2017

Wall Time:        1.00 seconds


***********************************************************

Host: Alexandres-MacBook-Pro.local

Timers On : Thu Sep 21 17:40:58 2017
Timers Off: Thu Sep 21 17:40:59 2017

Wall Time:        1.00 seconds


***********************************************************

Host: Alexandres-MacBook-Pro.local

Timers On : Thu Sep 21 17:41:07 2017
Timers Off: Thu Sep 21 17:41:08 2017

Wall Time:        1.00 seconds


***********************************************************
